phono3py:
  version: 2.3.2
  frequency_unit_conversion_factor: 15.633302
  symmetry_tolerance: 1.00000e-05

physical_unit:
  atomic_mass: "AMU"

space_group:
  type: "Fm-3m"
  number: 225
  Hall_symbol: "-F 4 2 3"

supercell_matrix:
- [   2,   0,   0 ]
- [   0,   2,   0 ]
- [   0,   0,   2 ]

primitive_cell:
  lattice:
  - [     8.134819999999999,     0.000000000000000,     0.000000000000000 ] # a
  - [     0.000000000000000,     8.134819999999999,     0.000000000000000 ] # b
  - [     0.000000000000000,     0.000000000000000,     8.134819999999999 ] # c
  points:
  - symbol: Al # 1
    coordinates: [  0.000000000000000,  0.000000000000000,  0.000000000000000 ]
    mass: 26.981539
  - symbol: Al # 2
    coordinates: [  0.000000000000000,  0.000000000000000,  0.500000000000000 ]
    mass: 26.981539
  - symbol: Al # 3
    coordinates: [  0.000000000000000,  0.500000000000000,  0.000000000000000 ]
    mass: 26.981539
  - symbol: Al # 4
    coordinates: [  0.000000000000000,  0.500000000000000,  0.500000000000000 ]
    mass: 26.981539
  - symbol: Al # 5
    coordinates: [  0.500000000000000,  0.000000000000000,  0.000000000000000 ]
    mass: 26.981539
  - symbol: Al # 6
    coordinates: [  0.500000000000000,  0.000000000000000,  0.500000000000000 ]
    mass: 26.981539
  - symbol: Al # 7
    coordinates: [  0.500000000000000,  0.500000000000000,  0.000000000000000 ]
    mass: 26.981539
  - symbol: Al # 8
    coordinates: [  0.500000000000000,  0.500000000000000,  0.500000000000000 ]
    mass: 26.981539
  - symbol: Al # 9
    coordinates: [  0.000000000000000,  0.250000000000000,  0.250000000000000 ]
    mass: 26.981539
  - symbol: Al # 10
    coordinates: [  0.000000000000000,  0.250000000000000,  0.750000000000000 ]
    mass: 26.981539
  - symbol: Al # 11
    coordinates: [  0.000000000000000,  0.750000000000000,  0.250000000000000 ]
    mass: 26.981539
  - symbol: Al # 12
    coordinates: [  0.000000000000000,  0.750000000000000,  0.750000000000000 ]
    mass: 26.981539
  - symbol: Al # 13
    coordinates: [  0.500000000000000,  0.250000000000000,  0.250000000000000 ]
    mass: 26.981539
  - symbol: Al # 14
    coordinates: [  0.500000000000000,  0.250000000000000,  0.750000000000000 ]
    mass: 26.981539
  - symbol: Al # 15
    coordinates: [  0.500000000000000,  0.750000000000000,  0.250000000000000 ]
    mass: 26.981539
  - symbol: Al # 16
    coordinates: [  0.500000000000000,  0.750000000000000,  0.750000000000000 ]
    mass: 26.981539
  - symbol: Al # 17
    coordinates: [  0.250000000000000,  0.000000000000000,  0.250000000000000 ]
    mass: 26.981539
  - symbol: Al # 18
    coordinates: [  0.250000000000000,  0.000000000000000,  0.750000000000000 ]
    mass: 26.981539
  - symbol: Al # 19
    coordinates: [  0.250000000000000,  0.500000000000000,  0.250000000000000 ]
    mass: 26.981539
  - symbol: Al # 20
    coordinates: [  0.250000000000000,  0.500000000000000,  0.750000000000000 ]
    mass: 26.981539
  - symbol: Al # 21
    coordinates: [  0.750000000000000,  0.000000000000000,  0.250000000000000 ]
    mass: 26.981539
  - symbol: Al # 22
    coordinates: [  0.750000000000000,  0.000000000000000,  0.750000000000000 ]
    mass: 26.981539
  - symbol: Al # 23
    coordinates: [  0.750000000000000,  0.500000000000000,  0.250000000000000 ]
    mass: 26.981539
  - symbol: Al # 24
    coordinates: [  0.750000000000000,  0.500000000000000,  0.750000000000000 ]
    mass: 26.981539
  - symbol: Al # 25
    coordinates: [  0.250000000000000,  0.250000000000000,  0.000000000000000 ]
    mass: 26.981539
  - symbol: Al # 26
    coordinates: [  0.250000000000000,  0.250000000000000,  0.500000000000000 ]
    mass: 26.981539
  - symbol: Al # 27
    coordinates: [  0.250000000000000,  0.750000000000000,  0.000000000000000 ]
    mass: 26.981539
  - symbol: Al # 28
    coordinates: [  0.250000000000000,  0.750000000000000,  0.500000000000000 ]
    mass: 26.981539
  - symbol: Al # 29
    coordinates: [  0.750000000000000,  0.250000000000000,  0.000000000000000 ]
    mass: 26.981539
  - symbol: Al # 30
    coordinates: [  0.750000000000000,  0.250000000000000,  0.500000000000000 ]
    mass: 26.981539
  - symbol: Al # 31
    coordinates: [  0.750000000000000,  0.750000000000000,  0.000000000000000 ]
    mass: 26.981539
  - symbol: Al # 32
    coordinates: [  0.750000000000000,  0.750000000000000,  0.500000000000000 ]
    mass: 26.981539
  reciprocal_lattice: # without 2pi
  - [     0.122928349981930,     0.000000000000000,     0.000000000000000 ] # a*
  - [     0.000000000000000,     0.122928349981930,     0.000000000000000 ] # b*
  - [     0.000000000000000,     0.000000000000000,     0.122928349981930 ] # c*

unit_cell:
  lattice:
  - [     8.134819999999999,     0.000000000000000,     0.000000000000000 ] # a
  - [     0.000000000000000,     8.134819999999999,     0.000000000000000 ] # b
  - [     0.000000000000000,     0.000000000000000,     8.134819999999999 ] # c
  points:
  - symbol: Al # 1
    coordinates: [  0.000000000000000,  0.000000000000000,  0.000000000000000 ]
    mass: 26.981539
    reduced_to: 1
  - symbol: Al # 2
    coordinates: [  0.000000000000000,  0.000000000000000,  0.500000000000000 ]
    mass: 26.981539
    reduced_to: 2
  - symbol: Al # 3
    coordinates: [  0.000000000000000,  0.500000000000000,  0.000000000000000 ]
    mass: 26.981539
    reduced_to: 3
  - symbol: Al # 4
    coordinates: [  0.000000000000000,  0.500000000000000,  0.500000000000000 ]
    mass: 26.981539
    reduced_to: 4
  - symbol: Al # 5
    coordinates: [  0.500000000000000,  0.000000000000000,  0.000000000000000 ]
    mass: 26.981539
    reduced_to: 5
  - symbol: Al # 6
    coordinates: [  0.500000000000000,  0.000000000000000,  0.500000000000000 ]
    mass: 26.981539
    reduced_to: 6
  - symbol: Al # 7
    coordinates: [  0.500000000000000,  0.500000000000000,  0.000000000000000 ]
    mass: 26.981539
    reduced_to: 7
  - symbol: Al # 8
    coordinates: [  0.500000000000000,  0.500000000000000,  0.500000000000000 ]
    mass: 26.981539
    reduced_to: 8
  - symbol: Al # 9
    coordinates: [  0.000000000000000,  0.250000000000000,  0.250000000000000 ]
    mass: 26.981539
    reduced_to: 9
  - symbol: Al # 10
    coordinates: [  0.000000000000000,  0.250000000000000,  0.750000000000000 ]
    mass: 26.981539
    reduced_to: 10
  - symbol: Al # 11
    coordinates: [  0.000000000000000,  0.750000000000000,  0.250000000000000 ]
    mass: 26.981539
    reduced_to: 11
  - symbol: Al # 12
    coordinates: [  0.000000000000000,  0.750000000000000,  0.750000000000000 ]
    mass: 26.981539
    reduced_to: 12
  - symbol: Al # 13
    coordinates: [  0.500000000000000,  0.250000000000000,  0.250000000000000 ]
    mass: 26.981539
    reduced_to: 13
  - symbol: Al # 14
    coordinates: [  0.500000000000000,  0.250000000000000,  0.750000000000000 ]
    mass: 26.981539
    reduced_to: 14
  - symbol: Al # 15
    coordinates: [  0.500000000000000,  0.750000000000000,  0.250000000000000 ]
    mass: 26.981539
    reduced_to: 15
  - symbol: Al # 16
    coordinates: [  0.500000000000000,  0.750000000000000,  0.750000000000000 ]
    mass: 26.981539
    reduced_to: 16
  - symbol: Al # 17
    coordinates: [  0.250000000000000,  0.000000000000000,  0.250000000000000 ]
    mass: 26.981539
    reduced_to: 17
  - symbol: Al # 18
    coordinates: [  0.250000000000000,  0.000000000000000,  0.750000000000000 ]
    mass: 26.981539
    reduced_to: 18
  - symbol: Al # 19
    coordinates: [  0.250000000000000,  0.500000000000000,  0.250000000000000 ]
    mass: 26.981539
    reduced_to: 19
  - symbol: Al # 20
    coordinates: [  0.250000000000000,  0.500000000000000,  0.750000000000000 ]
    mass: 26.981539
    reduced_to: 20
  - symbol: Al # 21
    coordinates: [  0.750000000000000,  0.000000000000000,  0.250000000000000 ]
    mass: 26.981539
    reduced_to: 21
  - symbol: Al # 22
    coordinates: [  0.750000000000000,  0.000000000000000,  0.750000000000000 ]
    mass: 26.981539
    reduced_to: 22
  - symbol: Al # 23
    coordinates: [  0.750000000000000,  0.500000000000000,  0.250000000000000 ]
    mass: 26.981539
    reduced_to: 23
  - symbol: Al # 24
    coordinates: [  0.750000000000000,  0.500000000000000,  0.750000000000000 ]
    mass: 26.981539
    reduced_to: 24
  - symbol: Al # 25
    coordinates: [  0.250000000000000,  0.250000000000000,  0.000000000000000 ]
    mass: 26.981539
    reduced_to: 25
  - symbol: Al # 26
    coordinates: [  0.250000000000000,  0.250000000000000,  0.500000000000000 ]
    mass: 26.981539
    reduced_to: 26
  - symbol: Al # 27
    coordinates: [  0.250000000000000,  0.750000000000000,  0.000000000000000 ]
    mass: 26.981539
    reduced_to: 27
  - symbol: Al # 28
    coordinates: [  0.250000000000000,  0.750000000000000,  0.500000000000000 ]
    mass: 26.981539
    reduced_to: 28
  - symbol: Al # 29
    coordinates: [  0.750000000000000,  0.250000000000000,  0.000000000000000 ]
    mass: 26.981539
    reduced_to: 29
  - symbol: Al # 30
    coordinates: [  0.750000000000000,  0.250000000000000,  0.500000000000000 ]
    mass: 26.981539
    reduced_to: 30
  - symbol: Al # 31
    coordinates: [  0.750000000000000,  0.750000000000000,  0.000000000000000 ]
    mass: 26.981539
    reduced_to: 31
  - symbol: Al # 32
    coordinates: [  0.750000000000000,  0.750000000000000,  0.500000000000000 ]
    mass: 26.981539
    reduced_to: 32

supercell:
  lattice:
  - [    16.269639999999999,     0.000000000000000,     0.000000000000000 ] # a
  - [     0.000000000000000,    16.269639999999999,     0.000000000000000 ] # b
  - [     0.000000000000000,     0.000000000000000,    16.269639999999999 ] # c
  points:
  - symbol: Al # 1
    coordinates: [  0.000000000000000,  0.000000000000000,  0.000000000000000 ]
    mass: 26.981539
    reduced_to: 1
  - symbol: Al # 2
    coordinates: [  0.500000000000000,  0.000000000000000,  0.000000000000000 ]
    mass: 26.981539
    reduced_to: 1
  - symbol: Al # 3
    coordinates: [  0.000000000000000,  0.500000000000000,  0.000000000000000 ]
    mass: 26.981539
    reduced_to: 1
  - symbol: Al # 4
    coordinates: [  0.500000000000000,  0.500000000000000,  0.000000000000000 ]
    mass: 26.981539
    reduced_to: 1
  - symbol: Al # 5
    coordinates: [  0.000000000000000,  0.000000000000000,  0.500000000000000 ]
    mass: 26.981539
    reduced_to: 1
  - symbol: Al # 6
    coordinates: [  0.500000000000000,  0.000000000000000,  0.500000000000000 ]
    mass: 26.981539
    reduced_to: 1
  - symbol: Al # 7
    coordinates: [  0.000000000000000,  0.500000000000000,  0.500000000000000 ]
    mass: 26.981539
    reduced_to: 1
  - symbol: Al # 8
    coordinates: [  0.500000000000000,  0.500000000000000,  0.500000000000000 ]
    mass: 26.981539
    reduced_to: 1
  - symbol: Al # 9
    coordinates: [  0.000000000000000,  0.000000000000000,  0.250000000000000 ]
    mass: 26.981539
    reduced_to: 9
  - symbol: Al # 10
    coordinates: [  0.500000000000000,  0.000000000000000,  0.250000000000000 ]
    mass: 26.981539
    reduced_to: 9
  - symbol: Al # 11
    coordinates: [  0.000000000000000,  0.500000000000000,  0.250000000000000 ]
    mass: 26.981539
    reduced_to: 9
  - symbol: Al # 12
    coordinates: [  0.500000000000000,  0.500000000000000,  0.250000000000000 ]
    mass: 26.981539
    reduced_to: 9
  - symbol: Al # 13
    coordinates: [  0.000000000000000,  0.000000000000000,  0.750000000000000 ]
    mass: 26.981539
    reduced_to: 9
  - symbol: Al # 14
    coordinates: [  0.500000000000000,  0.000000000000000,  0.750000000000000 ]
    mass: 26.981539
    reduced_to: 9
  - symbol: Al # 15
    coordinates: [  0.000000000000000,  0.500000000000000,  0.750000000000000 ]
    mass: 26.981539
    reduced_to: 9
  - symbol: Al # 16
    coordinates: [  0.500000000000000,  0.500000000000000,  0.750000000000000 ]
    mass: 26.981539
    reduced_to: 9
  - symbol: Al # 17
    coordinates: [  0.000000000000000,  0.250000000000000,  0.000000000000000 ]
    mass: 26.981539
    reduced_to: 17
  - symbol: Al # 18
    coordinates: [  0.500000000000000,  0.250000000000000,  0.000000000000000 ]
    mass: 26.981539
    reduced_to: 17
  - symbol: Al # 19
    coordinates: [  0.000000000000000,  0.750000000000000,  0.000000000000000 ]
    mass: 26.981539
    reduced_to: 17
  - symbol: Al # 20
    coordinates: [  0.500000000000000,  0.750000000000000,  0.000000000000000 ]
    mass: 26.981539
    reduced_to: 17
  - symbol: Al # 21
    coordinates: [  0.000000000000000,  0.250000000000000,  0.500000000000000 ]
    mass: 26.981539
    reduced_to: 17
  - symbol: Al # 22
    coordinates: [  0.500000000000000,  0.250000000000000,  0.500000000000000 ]
    mass: 26.981539
    reduced_to: 17
  - symbol: Al # 23
    coordinates: [  0.000000000000000,  0.750000000000000,  0.500000000000000 ]
    mass: 26.981539
    reduced_to: 17
  - symbol: Al # 24
    coordinates: [  0.500000000000000,  0.750000000000000,  0.500000000000000 ]
    mass: 26.981539
    reduced_to: 17
  - symbol: Al # 25
    coordinates: [  0.000000000000000,  0.250000000000000,  0.250000000000000 ]
    mass: 26.981539
    reduced_to: 25
  - symbol: Al # 26
    coordinates: [  0.500000000000000,  0.250000000000000,  0.250000000000000 ]
    mass: 26.981539
    reduced_to: 25
  - symbol: Al # 27
    coordinates: [  0.000000000000000,  0.750000000000000,  0.250000000000000 ]
    mass: 26.981539
    reduced_to: 25
  - symbol: Al # 28
    coordinates: [  0.500000000000000,  0.750000000000000,  0.250000000000000 ]
    mass: 26.981539
    reduced_to: 25
  - symbol: Al # 29
    coordinates: [  0.000000000000000,  0.250000000000000,  0.750000000000000 ]
    mass: 26.981539
    reduced_to: 25
  - symbol: Al # 30
    coordinates: [  0.500000000000000,  0.250000000000000,  0.750000000000000 ]
    mass: 26.981539
    reduced_to: 25
  - symbol: Al # 31
    coordinates: [  0.000000000000000,  0.750000000000000,  0.750000000000000 ]
    mass: 26.981539
    reduced_to: 25
  - symbol: Al # 32
    coordinates: [  0.500000000000000,  0.750000000000000,  0.750000000000000 ]
    mass: 26.981539
    reduced_to: 25
  - symbol: Al # 33
    coordinates: [  0.250000000000000,  0.000000000000000,  0.000000000000000 ]
    mass: 26.981539
    reduced_to: 33
  - symbol: Al # 34
    coordinates: [  0.750000000000000,  0.000000000000000,  0.000000000000000 ]
    mass: 26.981539
    reduced_to: 33
  - symbol: Al # 35
    coordinates: [  0.250000000000000,  0.500000000000000,  0.000000000000000 ]
    mass: 26.981539
    reduced_to: 33
  - symbol: Al # 36
    coordinates: [  0.750000000000000,  0.500000000000000,  0.000000000000000 ]
    mass: 26.981539
    reduced_to: 33
  - symbol: Al # 37
    coordinates: [  0.250000000000000,  0.000000000000000,  0.500000000000000 ]
    mass: 26.981539
    reduced_to: 33
  - symbol: Al # 38
    coordinates: [  0.750000000000000,  0.000000000000000,  0.500000000000000 ]
    mass: 26.981539
    reduced_to: 33
  - symbol: Al # 39
    coordinates: [  0.250000000000000,  0.500000000000000,  0.500000000000000 ]
    mass: 26.981539
    reduced_to: 33
  - symbol: Al # 40
    coordinates: [  0.750000000000000,  0.500000000000000,  0.500000000000000 ]
    mass: 26.981539
    reduced_to: 33
  - symbol: Al # 41
    coordinates: [  0.250000000000000,  0.000000000000000,  0.250000000000000 ]
    mass: 26.981539
    reduced_to: 41
  - symbol: Al # 42
    coordinates: [  0.750000000000000,  0.000000000000000,  0.250000000000000 ]
    mass: 26.981539
    reduced_to: 41
  - symbol: Al # 43
    coordinates: [  0.250000000000000,  0.500000000000000,  0.250000000000000 ]
    mass: 26.981539
    reduced_to: 41
  - symbol: Al # 44
    coordinates: [  0.750000000000000,  0.500000000000000,  0.250000000000000 ]
    mass: 26.981539
    reduced_to: 41
  - symbol: Al # 45
    coordinates: [  0.250000000000000,  0.000000000000000,  0.750000000000000 ]
    mass: 26.981539
    reduced_to: 41
  - symbol: Al # 46
    coordinates: [  0.750000000000000,  0.000000000000000,  0.750000000000000 ]
    mass: 26.981539
    reduced_to: 41
  - symbol: Al # 47
    coordinates: [  0.250000000000000,  0.500000000000000,  0.750000000000000 ]
    mass: 26.981539
    reduced_to: 41
  - symbol: Al # 48
    coordinates: [  0.750000000000000,  0.500000000000000,  0.750000000000000 ]
    mass: 26.981539
    reduced_to: 41
  - symbol: Al # 49
    coordinates: [  0.250000000000000,  0.250000000000000,  0.000000000000000 ]
    mass: 26.981539
    reduced_to: 49
  - symbol: Al # 50
    coordinates: [  0.750000000000000,  0.250000000000000,  0.000000000000000 ]
    mass: 26.981539
    reduced_to: 49
  - symbol: Al # 51
    coordinates: [  0.250000000000000,  0.750000000000000,  0.000000000000000 ]
    mass: 26.981539
    reduced_to: 49
  - symbol: Al # 52
    coordinates: [  0.750000000000000,  0.750000000000000,  0.000000000000000 ]
    mass: 26.981539
    reduced_to: 49
  - symbol: Al # 53
    coordinates: [  0.250000000000000,  0.250000000000000,  0.500000000000000 ]
    mass: 26.981539
    reduced_to: 49
  - symbol: Al # 54
    coordinates: [  0.750000000000000,  0.250000000000000,  0.500000000000000 ]
    mass: 26.981539
    reduced_to: 49
  - symbol: Al # 55
    coordinates: [  0.250000000000000,  0.750000000000000,  0.500000000000000 ]
    mass: 26.981539
    reduced_to: 49
  - symbol: Al # 56
    coordinates: [  0.750000000000000,  0.750000000000000,  0.500000000000000 ]
    mass: 26.981539
    reduced_to: 49
  - symbol: Al # 57
    coordinates: [  0.250000000000000,  0.250000000000000,  0.250000000000000 ]
    mass: 26.981539
    reduced_to: 57
  - symbol: Al # 58
    coordinates: [  0.750000000000000,  0.250000000000000,  0.250000000000000 ]
    mass: 26.981539
    reduced_to: 57
  - symbol: Al # 59
    coordinates: [  0.250000000000000,  0.750000000000000,  0.250000000000000 ]
    mass: 26.981539
    reduced_to: 57
  - symbol: Al # 60
    coordinates: [  0.750000000000000,  0.750000000000000,  0.250000000000000 ]
    mass: 26.981539
    reduced_to: 57
  - symbol: Al # 61
    coordinates: [  0.250000000000000,  0.250000000000000,  0.750000000000000 ]
    mass: 26.981539
    reduced_to: 57
  - symbol: Al # 62
    coordinates: [  0.750000000000000,  0.250000000000000,  0.750000000000000 ]
    mass: 26.981539
    reduced_to: 57
  - symbol: Al # 63
    coordinates: [  0.250000000000000,  0.750000000000000,  0.750000000000000 ]
    mass: 26.981539
    reduced_to: 57
  - symbol: Al # 64
    coordinates: [  0.750000000000000,  0.750000000000000,  0.750000000000000 ]
    mass: 26.981539
    reduced_to: 57
  - symbol: Al # 65
    coordinates: [  0.000000000000000,  0.125000000000000,  0.125000000000000 ]
    mass: 26.981539
    reduced_to: 65
  - symbol: Al # 66
    coordinates: [  0.500000000000000,  0.125000000000000,  0.125000000000000 ]
    mass: 26.981539
    reduced_to: 65
  - symbol: Al # 67
    coordinates: [  0.000000000000000,  0.625000000000000,  0.125000000000000 ]
    mass: 26.981539
    reduced_to: 65
  - symbol: Al # 68
    coordinates: [  0.500000000000000,  0.625000000000000,  0.125000000000000 ]
    mass: 26.981539
    reduced_to: 65
  - symbol: Al # 69
    coordinates: [  0.000000000000000,  0.125000000000000,  0.625000000000000 ]
    mass: 26.981539
    reduced_to: 65
  - symbol: Al # 70
    coordinates: [  0.500000000000000,  0.125000000000000,  0.625000000000000 ]
    mass: 26.981539
    reduced_to: 65
  - symbol: Al # 71
    coordinates: [  0.000000000000000,  0.625000000000000,  0.625000000000000 ]
    mass: 26.981539
    reduced_to: 65
  - symbol: Al # 72
    coordinates: [  0.500000000000000,  0.625000000000000,  0.625000000000000 ]
    mass: 26.981539
    reduced_to: 65
  - symbol: Al # 73
    coordinates: [  0.000000000000000,  0.125000000000000,  0.375000000000000 ]
    mass: 26.981539
    reduced_to: 73
  - symbol: Al # 74
    coordinates: [  0.500000000000000,  0.125000000000000,  0.375000000000000 ]
    mass: 26.981539
    reduced_to: 73
  - symbol: Al # 75
    coordinates: [  0.000000000000000,  0.625000000000000,  0.375000000000000 ]
    mass: 26.981539
    reduced_to: 73
  - symbol: Al # 76
    coordinates: [  0.500000000000000,  0.625000000000000,  0.375000000000000 ]
    mass: 26.981539
    reduced_to: 73
  - symbol: Al # 77
    coordinates: [  0.000000000000000,  0.125000000000000,  0.875000000000000 ]
    mass: 26.981539
    reduced_to: 73
  - symbol: Al # 78
    coordinates: [  0.500000000000000,  0.125000000000000,  0.875000000000000 ]
    mass: 26.981539
    reduced_to: 73
  - symbol: Al # 79
    coordinates: [  0.000000000000000,  0.625000000000000,  0.875000000000000 ]
    mass: 26.981539
    reduced_to: 73
  - symbol: Al # 80
    coordinates: [  0.500000000000000,  0.625000000000000,  0.875000000000000 ]
    mass: 26.981539
    reduced_to: 73
  - symbol: Al # 81
    coordinates: [  0.000000000000000,  0.375000000000000,  0.125000000000000 ]
    mass: 26.981539
    reduced_to: 81
  - symbol: Al # 82
    coordinates: [  0.500000000000000,  0.375000000000000,  0.125000000000000 ]
    mass: 26.981539
    reduced_to: 81
  - symbol: Al # 83
    coordinates: [  0.000000000000000,  0.875000000000000,  0.125000000000000 ]
    mass: 26.981539
    reduced_to: 81
  - symbol: Al # 84
    coordinates: [  0.500000000000000,  0.875000000000000,  0.125000000000000 ]
    mass: 26.981539
    reduced_to: 81
  - symbol: Al # 85
    coordinates: [  0.000000000000000,  0.375000000000000,  0.625000000000000 ]
    mass: 26.981539
    reduced_to: 81
  - symbol: Al # 86
    coordinates: [  0.500000000000000,  0.375000000000000,  0.625000000000000 ]
    mass: 26.981539
    reduced_to: 81
  - symbol: Al # 87
    coordinates: [  0.000000000000000,  0.875000000000000,  0.625000000000000 ]
    mass: 26.981539
    reduced_to: 81
  - symbol: Al # 88
    coordinates: [  0.500000000000000,  0.875000000000000,  0.625000000000000 ]
    mass: 26.981539
    reduced_to: 81
  - symbol: Al # 89
    coordinates: [  0.000000000000000,  0.375000000000000,  0.375000000000000 ]
    mass: 26.981539
    reduced_to: 89
  - symbol: Al # 90
    coordinates: [  0.500000000000000,  0.375000000000000,  0.375000000000000 ]
    mass: 26.981539
    reduced_to: 89
  - symbol: Al # 91
    coordinates: [  0.000000000000000,  0.875000000000000,  0.375000000000000 ]
    mass: 26.981539
    reduced_to: 89
  - symbol: Al # 92
    coordinates: [  0.500000000000000,  0.875000000000000,  0.375000000000000 ]
    mass: 26.981539
    reduced_to: 89
  - symbol: Al # 93
    coordinates: [  0.000000000000000,  0.375000000000000,  0.875000000000000 ]
    mass: 26.981539
    reduced_to: 89
  - symbol: Al # 94
    coordinates: [  0.500000000000000,  0.375000000000000,  0.875000000000000 ]
    mass: 26.981539
    reduced_to: 89
  - symbol: Al # 95
    coordinates: [  0.000000000000000,  0.875000000000000,  0.875000000000000 ]
    mass: 26.981539
    reduced_to: 89
  - symbol: Al # 96
    coordinates: [  0.500000000000000,  0.875000000000000,  0.875000000000000 ]
    mass: 26.981539
    reduced_to: 89
  - symbol: Al # 97
    coordinates: [  0.250000000000000,  0.125000000000000,  0.125000000000000 ]
    mass: 26.981539
    reduced_to: 97
  - symbol: Al # 98
    coordinates: [  0.750000000000000,  0.125000000000000,  0.125000000000000 ]
    mass: 26.981539
    reduced_to: 97
  - symbol: Al # 99
    coordinates: [  0.250000000000000,  0.625000000000000,  0.125000000000000 ]
    mass: 26.981539
    reduced_to: 97
  - symbol: Al # 100
    coordinates: [  0.750000000000000,  0.625000000000000,  0.125000000000000 ]
    mass: 26.981539
    reduced_to: 97
  - symbol: Al # 101
    coordinates: [  0.250000000000000,  0.125000000000000,  0.625000000000000 ]
    mass: 26.981539
    reduced_to: 97
  - symbol: Al # 102
    coordinates: [  0.750000000000000,  0.125000000000000,  0.625000000000000 ]
    mass: 26.981539
    reduced_to: 97
  - symbol: Al # 103
    coordinates: [  0.250000000000000,  0.625000000000000,  0.625000000000000 ]
    mass: 26.981539
    reduced_to: 97
  - symbol: Al # 104
    coordinates: [  0.750000000000000,  0.625000000000000,  0.625000000000000 ]
    mass: 26.981539
    reduced_to: 97
  - symbol: Al # 105
    coordinates: [  0.250000000000000,  0.125000000000000,  0.375000000000000 ]
    mass: 26.981539
    reduced_to: 105
  - symbol: Al # 106
    coordinates: [  0.750000000000000,  0.125000000000000,  0.375000000000000 ]
    mass: 26.981539
    reduced_to: 105
  - symbol: Al # 107
    coordinates: [  0.250000000000000,  0.625000000000000,  0.375000000000000 ]
    mass: 26.981539
    reduced_to: 105
  - symbol: Al # 108
    coordinates: [  0.750000000000000,  0.625000000000000,  0.375000000000000 ]
    mass: 26.981539
    reduced_to: 105
  - symbol: Al # 109
    coordinates: [  0.250000000000000,  0.125000000000000,  0.875000000000000 ]
    mass: 26.981539
    reduced_to: 105
  - symbol: Al # 110
    coordinates: [  0.750000000000000,  0.125000000000000,  0.875000000000000 ]
    mass: 26.981539
    reduced_to: 105
  - symbol: Al # 111
    coordinates: [  0.250000000000000,  0.625000000000000,  0.875000000000000 ]
    mass: 26.981539
    reduced_to: 105
  - symbol: Al # 112
    coordinates: [  0.750000000000000,  0.625000000000000,  0.875000000000000 ]
    mass: 26.981539
    reduced_to: 105
  - symbol: Al # 113
    coordinates: [  0.250000000000000,  0.375000000000000,  0.125000000000000 ]
    mass: 26.981539
    reduced_to: 113
  - symbol: Al # 114
    coordinates: [  0.750000000000000,  0.375000000000000,  0.125000000000000 ]
    mass: 26.981539
    reduced_to: 113
  - symbol: Al # 115
    coordinates: [  0.250000000000000,  0.875000000000000,  0.125000000000000 ]
    mass: 26.981539
    reduced_to: 113
  - symbol: Al # 116
    coordinates: [  0.750000000000000,  0.875000000000000,  0.125000000000000 ]
    mass: 26.981539
    reduced_to: 113
  - symbol: Al # 117
    coordinates: [  0.250000000000000,  0.375000000000000,  0.625000000000000 ]
    mass: 26.981539
    reduced_to: 113
  - symbol: Al # 118
    coordinates: [  0.750000000000000,  0.375000000000000,  0.625000000000000 ]
    mass: 26.981539
    reduced_to: 113
  - symbol: Al # 119
    coordinates: [  0.250000000000000,  0.875000000000000,  0.625000000000000 ]
    mass: 26.981539
    reduced_to: 113
  - symbol: Al # 120
    coordinates: [  0.750000000000000,  0.875000000000000,  0.625000000000000 ]
    mass: 26.981539
    reduced_to: 113
  - symbol: Al # 121
    coordinates: [  0.250000000000000,  0.375000000000000,  0.375000000000000 ]
    mass: 26.981539
    reduced_to: 121
  - symbol: Al # 122
    coordinates: [  0.750000000000000,  0.375000000000000,  0.375000000000000 ]
    mass: 26.981539
    reduced_to: 121
  - symbol: Al # 123
    coordinates: [  0.250000000000000,  0.875000000000000,  0.375000000000000 ]
    mass: 26.981539
    reduced_to: 121
  - symbol: Al # 124
    coordinates: [  0.750000000000000,  0.875000000000000,  0.375000000000000 ]
    mass: 26.981539
    reduced_to: 121
  - symbol: Al # 125
    coordinates: [  0.250000000000000,  0.375000000000000,  0.875000000000000 ]
    mass: 26.981539
    reduced_to: 121
  - symbol: Al # 126
    coordinates: [  0.750000000000000,  0.375000000000000,  0.875000000000000 ]
    mass: 26.981539
    reduced_to: 121
  - symbol: Al # 127
    coordinates: [  0.250000000000000,  0.875000000000000,  0.875000000000000 ]
    mass: 26.981539
    reduced_to: 121
  - symbol: Al # 128
    coordinates: [  0.750000000000000,  0.875000000000000,  0.875000000000000 ]
    mass: 26.981539
    reduced_to: 121
  - symbol: Al # 129
    coordinates: [  0.125000000000000,  0.000000000000000,  0.125000000000000 ]
    mass: 26.981539
    reduced_to: 129
  - symbol: Al # 130
    coordinates: [  0.625000000000000,  0.000000000000000,  0.125000000000000 ]
    mass: 26.981539
    reduced_to: 129
  - symbol: Al # 131
    coordinates: [  0.125000000000000,  0.500000000000000,  0.125000000000000 ]
    mass: 26.981539
    reduced_to: 129
  - symbol: Al # 132
    coordinates: [  0.625000000000000,  0.500000000000000,  0.125000000000000 ]
    mass: 26.981539
    reduced_to: 129
  - symbol: Al # 133
    coordinates: [  0.125000000000000,  0.000000000000000,  0.625000000000000 ]
    mass: 26.981539
    reduced_to: 129
  - symbol: Al # 134
    coordinates: [  0.625000000000000,  0.000000000000000,  0.625000000000000 ]
    mass: 26.981539
    reduced_to: 129
  - symbol: Al # 135
    coordinates: [  0.125000000000000,  0.500000000000000,  0.625000000000000 ]
    mass: 26.981539
    reduced_to: 129
  - symbol: Al # 136
    coordinates: [  0.625000000000000,  0.500000000000000,  0.625000000000000 ]
    mass: 26.981539
    reduced_to: 129
  - symbol: Al # 137
    coordinates: [  0.125000000000000,  0.000000000000000,  0.375000000000000 ]
    mass: 26.981539
    reduced_to: 137
  - symbol: Al # 138
    coordinates: [  0.625000000000000,  0.000000000000000,  0.375000000000000 ]
    mass: 26.981539
    reduced_to: 137
  - symbol: Al # 139
    coordinates: [  0.125000000000000,  0.500000000000000,  0.375000000000000 ]
    mass: 26.981539
    reduced_to: 137
  - symbol: Al # 140
    coordinates: [  0.625000000000000,  0.500000000000000,  0.375000000000000 ]
    mass: 26.981539
    reduced_to: 137
  - symbol: Al # 141
    coordinates: [  0.125000000000000,  0.000000000000000,  0.875000000000000 ]
    mass: 26.981539
    reduced_to: 137
  - symbol: Al # 142
    coordinates: [  0.625000000000000,  0.000000000000000,  0.875000000000000 ]
    mass: 26.981539
    reduced_to: 137
  - symbol: Al # 143
    coordinates: [  0.125000000000000,  0.500000000000000,  0.875000000000000 ]
    mass: 26.981539
    reduced_to: 137
  - symbol: Al # 144
    coordinates: [  0.625000000000000,  0.500000000000000,  0.875000000000000 ]
    mass: 26.981539
    reduced_to: 137
  - symbol: Al # 145
    coordinates: [  0.125000000000000,  0.250000000000000,  0.125000000000000 ]
    mass: 26.981539
    reduced_to: 145
  - symbol: Al # 146
    coordinates: [  0.625000000000000,  0.250000000000000,  0.125000000000000 ]
    mass: 26.981539